# Created by CSS Data Browser Version 4.1.4.201507131348
# 
# Start Time : 2017-03-16 09:02:27.816 +0100
# End Time   : 2017-03-16 11:34:34.483 +0100
# Source     : Plot
# Format     : Decimal (6 digits)
# 
# Data is in TAB-delimited columns, should import into e.g. Excel

# Channel: steam:pfeiffertpg361:p_get
# Name   : Pfeiffertpg361
# Archives:
# 1) Inst
#    URL: jdbc:oracle:thin:@snsoroda-scan.sns.gov:1521/scprod_controls
#    Key: 1
# 2) Accl
#    URL: jdbc:oracle:thin:@(DESCRIPTION=(LOAD_BALANCE=OFF)(FAILOVER=ON)(ADDRESS=(PROTOCOL=TCP)(HOST=snsappa.sns.ornl.gov)(PORT=1610))(ADDRESS=(PROTOCOL=TCP)(HOST=snsappb.sns.ornl.gov)(PORT=1610))(CONNECT_DATA=(SERVICE_NAME=prod_controls)))
#    Key: 1
# 
# Channel: steam:peaktech2025:value_get
# Name   : Peaktech2025
# Archives:
# 1) Inst
#    URL: jdbc:oracle:thin:@snsoroda-scan.sns.gov:1521/scprod_controls
#    Key: 1
# 2) Accl
#    URL: jdbc:oracle:thin:@(DESCRIPTION=(LOAD_BALANCE=OFF)(FAILOVER=ON)(ADDRESS=(PROTOCOL=TCP)(HOST=snsappa.sns.ornl.gov)(PORT=1610))(ADDRESS=(PROTOCOL=TCP)(HOST=snsappb.sns.ornl.gov)(PORT=1610))(CONNECT_DATA=(SERVICE_NAME=prod_controls)))
#    Key: 1
# 

# Time	steam:pfeiffertpg361:p_get Value	Negative Error	Positive Error	Severity	Status	steam:peaktech2025:value_get Value	Negative Error	Positive Error	Severity	Status
2017/03/16 09:02:09.029063224	#N/A	#N/A	#N/A	#N/A	#N/A	-9,760000	0	0	NONE	NO_ALARM
2017/03/16 09:02:27.637898692	0,000000	0	0	NONE	NO_ALARM	-9,760000	0	0	NONE	NO_ALARM
2017/03/16 09:02:28.637366110	0,000000	0	0	NONE	NO_ALARM	-9,760000	0	0	NONE	NO_ALARM
2017/03/16 09:02:29.637586861	0,000000	0	0	NONE	NO_ALARM	-9,760000	0	0	NONE	NO_ALARM
2017/03/16 09:02:30.637455746	0,000000	0	0	NONE	NO_ALARM	-9,760000	0	0	NONE	NO_ALARM
2017/03/16 09:02:31.638420598	0,000000	0	0	NONE	NO_ALARM	-9,760000	0	0	NONE	NO_ALARM
2017/03/16 09:02:31.979670001	0,000000	0	0	NONE	NO_ALARM	-9,750000	0	0	NONE	NO_ALARM
2017/03/16 09:02:32.638025726	0,000000	0	0	NONE	NO_ALARM	-9,750000	0	0	NONE	NO_ALARM
2017/03/16 09:02:33.119375079	0,000000	0	0	NONE	NO_ALARM	-9,760000	0	0	NONE	NO_ALARM
2017/03/16 09:02:33.638470517	0,000000	0	0	NONE	NO_ALARM	-9,760000	0	0	NONE	NO_ALARM
2017/03/16 09:02:34.638254156	0,000000	0	0	NONE	NO_ALARM	-9,760000	0	0	NONE	NO_ALARM
2017/03/16 09:02:35.637675498	0,000000	0	0	NONE	NO_ALARM	-9,760000	0	0	NONE	NO_ALARM
2017/03/16 09:02:36.637892517	0,000000	0	0	NONE	NO_ALARM	-9,760000	0	0	NONE	NO_ALARM
2017/03/16 09:02:37.637461024	0,000000	0	0	NONE	NO_ALARM	-9,760000	0	0	NONE	NO_ALARM
2017/03/16 09:02:38.638045025	0,000000	0	0	NONE	NO_ALARM	-9,760000	0	0	NONE	NO_ALARM
2017/03/16 09:02:39.637460763	0,000000	0	0	NONE	NO_ALARM	-9,760000	0	0	NONE	NO_ALARM
2017/03/16 09:02:42.637830821	0,000000	0	0	NONE	NO_ALARM	-9,760000	0	0	NONE	NO_ALARM
2017/03/16 09:02:44.638445895	0,000000	0	0	NONE	NO_ALARM	-9,760000	0	0	NONE	NO_ALARM
2017/03/16 09:02:48.637849260	0,000000	0	0	NONE	NO_ALARM	-9,760000	0	0	NONE	NO_ALARM
2017/03/16 09:02:49.637746989	0,000000	0	0	NONE	NO_ALARM	-9,760000	0	0	NONE	NO_ALARM
2017/03/16 09:02:50.637714903	0,000000	0	0	NONE	NO_ALARM	-9,760000	0	0	NONE	NO_ALARM
2017/03/16 09:02:51.637289454	0,000000	0	0	NONE	NO_ALARM	-9,760000	0	0	NONE	NO_ALARM
2017/03/16 09:02:53.638132449	0,000000	0	0	NONE	NO_ALARM	-9,760000	0	0	NONE	NO_ALARM
2017/03/16 09:02:54.638013848	0,000000	0	0	NONE	NO_ALARM	-9,760000	0	0	NONE	NO_ALARM
2017/03/16 09:02:55.638191087	0,000000	0	0	NONE	NO_ALARM	-9,760000	0	0	NONE	NO_ALARM
2017/03/16 09:02:56.633046983	0,000000	0	0	NONE	NO_ALARM	-9,750000	0	0	NONE	NO_ALARM
2017/03/16 09:02:57.638076453	0,000000	0	0	NONE	NO_ALARM	-9,750000	0	0	NONE	NO_ALARM
2017/03/16 09:02:57.753275293	0,000000	0	0	NONE	NO_ALARM	-9,760000	0	0	NONE	NO_ALARM
2017/03/16 09:03:00.603143188	0,000000	0	0	NONE	NO_ALARM	-9,750000	0	0	NONE	NO_ALARM
2017/03/16 09:03:01.756884211	0,000000	0	0	NONE	NO_ALARM	-9,760000	0	0	NONE	NO_ALARM
2017/03/16 09:03:03.534547768	0,000000	0	0	NONE	NO_ALARM	-9,750000	0	0	NONE	NO_ALARM
2017/03/16 09:03:04.638335483	0,000000	0	0	NONE	NO_ALARM	-9,750000	0	0	NONE	NO_ALARM
2017/03/16 09:03:04.695658874	0,000000	0	0	NONE	NO_ALARM	-9,760000	0	0	NONE	NO_ALARM
2017/03/16 09:03:05.638001640	0,000000	0	0	NONE	NO_ALARM	-9,760000	0	0	NONE	NO_ALARM
2017/03/16 09:03:08.637713177	0,000000	0	0	NONE	NO_ALARM	-9,760000	0	0	NONE	NO_ALARM
2017/03/16 09:03:09.637821633	0,000000	0	0	NONE	NO_ALARM	-9,760000	0	0	NONE	NO_ALARM
2017/03/16 09:03:10.143311238	0,000000	0	0	NONE	NO_ALARM	-9,750000	0	0	NONE	NO_ALARM
2017/03/16 09:03:10.637352576	0,000000	0	0	NONE	NO_ALARM	-9,750000	0	0	NONE	NO_ALARM
2017/03/16 09:03:11.299297827	0,000000	0	0	NONE	NO_ALARM	-9,760000	0	0	NONE	NO_ALARM
2017/03/16 09:03:11.638136120	0,000000	0	0	NONE	NO_ALARM	-9,760000	0	0	NONE	NO_ALARM
2017/03/16 09:03:12.637531388	0,000000	0	0	NONE	NO_ALARM	-9,760000	0	0	NONE	NO_ALARM
2017/03/16 09:03:13.638730321	0,000000	0	0	NONE	NO_ALARM	-9,760000	0	0	NONE	NO_ALARM
2017/03/16 09:03:14.230146313	0,000000	0	0	NONE	NO_ALARM	-9,750000	0	0	NONE	NO_ALARM
2017/03/16 09:03:14.637964766	0,000000	0	0	NONE	NO_ALARM	-9,750000	0	0	NONE	NO_ALARM
2017/03/16 09:03:15.352799042	0,000000	0	0	NONE	NO_ALARM	-9,760000	0	0	NONE	NO_ALARM
2017/03/16 09:03:15.638214155	0,000000	0	0	NONE	NO_ALARM	-9,760000	0	0	NONE	NO_ALARM
2017/03/16 09:03:18.638285384	0,000000	0	0	NONE	NO_ALARM	-9,760000	0	0	NONE	NO_ALARM
2017/03/16 09:03:19.637660358	0,000000	0	0	NONE	NO_ALARM	-9,760000	0	0	NONE	NO_ALARM
2017/03/16 09:03:20.637369120	0,000000	0	0	NONE	NO_ALARM	-9,760000	0	0	NONE	NO_ALARM
2017/03/16 09:03:21.637678386	0,000000	0	0	NONE	NO_ALARM	-9,760000	0	0	NONE	NO_ALARM
2017/03/16 09:03:22.637603594	0,000000	0	0	NONE	NO_ALARM	-9,760000	0	0	NONE	NO_ALARM
2017/03/16 09:03:23.638173775	0,000000	0	0	NONE	NO_ALARM	-9,760000	0	0	NONE	NO_ALARM
2017/03/16 09:03:24.638175738	0,000000	0	0	NONE	NO_ALARM	-9,760000	0	0	NONE	NO_ALARM
2017/03/16 09:03:25.638317278	0,000000	0	0	NONE	NO_ALARM	-9,760000	0	0	NONE	NO_ALARM
2017/03/16 09:03:26.637937150	0,000000	0	0	NONE	NO_ALARM	-9,760000	0	0	NONE	NO_ALARM
2017/03/16 09:03:28.638013952	0,000000	0	0	NONE	NO_ALARM	-9,760000	0	0	NONE	NO_ALARM
2017/03/16 09:03:29.637792593	0,000000	0	0	NONE	NO_ALARM	-9,760000	0	0	NONE	NO_ALARM
2017/03/16 09:03:30.637949526	0,000000	0	0	NONE	NO_ALARM	-9,760000	0	0	NONE	NO_ALARM
2017/03/16 09:03:33.638184901	0,000000	0	0	NONE	NO_ALARM	-9,760000	0	0	NONE	NO_ALARM
2017/03/16 09:03:34.638038445	0,000000	0	0	NONE	NO_ALARM	-9,760000	0	0	NONE	NO_ALARM
2017/03/16 09:03:35.637882377	0,000000	0	0	NONE	NO_ALARM	-9,760000	0	0	NONE	NO_ALARM
2017/03/16 09:03:36.637949300	0,000000	0	0	NONE	NO_ALARM	-9,760000	0	0	NONE	NO_ALARM
2017/03/16 09:03:37.638106395	0,000000	0	0	NONE	NO_ALARM	-9,760000	0	0	NONE	NO_ALARM
2017/03/16 09:03:38.637861256	0,000000	0	0	NONE	NO_ALARM	-9,760000	0	0	NONE	NO_ALARM
2017/03/16 09:03:39.638392442	0,000000	0	0	NONE	NO_ALARM	-9,760000	0	0	NONE	NO_ALARM
2017/03/16 09:03:40.637797368	0,000000	0	0	NONE	NO_ALARM	-9,760000	0	0	NONE	NO_ALARM
2017/03/16 09:03:41.637500690	0,000000	0	0	NONE	NO_ALARM	-9,760000	0	0	NONE	NO_ALARM
2017/03/16 09:03:42.637838364	0,000000	0	0	NONE	NO_ALARM	-9,760000	0	0	NONE	NO_ALARM
2017/03/16 09:03:43.638379404	0,000000	0	0	NONE	NO_ALARM	-9,760000	0	0	NONE	NO_ALARM
2017/03/16 09:03:44.638221306	0,000000	0	0	NONE	NO_ALARM	-9,760000	0	0	NONE	NO_ALARM
2017/03/16 09:03:45.637695176	0,000000	0	0	NONE	NO_ALARM	-9,760000	0	0	NONE	NO_ALARM
2017/03/16 09:03:47.638249440	0,000000	0	0	NONE	NO_ALARM	-9,760000	0	0	NONE	NO_ALARM
2017/03/16 09:03:47.873021998	0,000000	0	0	NONE	NO_ALARM	-9,750000	0	0	NONE	NO_ALARM
2017/03/16 09:03:48.638074726	0,000000	0	0	NONE	NO_ALARM	-9,750000	0	0	NONE	NO_ALARM
2017/03/16 09:03:49.638087258	0,000000	0	0	NONE	NO_ALARM	-9,750000	0	0	NONE	NO_ALARM
2017/03/16 09:03:50.252988824	0,000000	0	0	NONE	NO_ALARM	-9,760000	0	0	NONE	NO_ALARM
2017/03/16 09:03:50.637911822	0,000000	0	0	NONE	NO_ALARM	-9,760000	0	0	NONE	NO_ALARM
2017/03/16 09:03:51.637919738	0,000000	0	0	NONE	NO_ALARM	-9,760000	0	0	NONE	NO_ALARM
2017/03/16 09:03:52.637542815	0,000000	0	0	NONE	NO_ALARM	-9,760000	0	0	NONE	NO_ALARM
2017/03/16 09:03:53.638313991	0,000000	0	0	NONE	NO_ALARM	-9,760000	0	0	NONE	NO_ALARM
2017/03/16 09:03:54.638207026	0,000000	0	0	NONE	NO_ALARM	-9,760000	0	0	NONE	NO_ALARM
2017/03/16 09:03:55.637690462	0,000000	0	0	NONE	NO_ALARM	-9,760000	0	0	NONE	NO_ALARM
2017/03/16 09:03:56.638418921	0,000000	0	0	NONE	NO_ALARM	-9,760000	0	0	NONE	NO_ALARM
2017/03/16 09:03:57.638071568	0,000000	0	0	NONE	NO_ALARM	-9,760000	0	0	NONE	NO_ALARM
2017/03/16 09:03:59.637610441	0,000000	0	0	NONE	NO_ALARM	-9,760000	0	0	NONE	NO_ALARM
2017/03/16 09:04:00.638271364	0,000000	0	0	NONE	NO_ALARM	-9,760000	0	0	NONE	NO_ALARM
2017/03/16 09:04:01.638019259	0,000000	0	0	NONE	NO_ALARM	-9,760000	0	0	NONE	NO_ALARM
2017/03/16 09:04:02.637468950	0,000000	0	0	NONE	NO_ALARM	-9,760000	0	0	NONE	NO_ALARM
2017/03/16 09:04:03.637748438	0,000000	0	0	NONE	NO_ALARM	-9,760000	0	0	NONE	NO_ALARM
2017/03/16 09:04:05.638217942	0,000000	0	0	NONE	NO_ALARM	-9,760000	0	0	NONE	NO_ALARM
2017/03/16 09:04:06.637984886	0,000000	0	0	NONE	NO_ALARM	-9,760000	0	0	NONE	NO_ALARM
2017/03/16 09:04:07.638931935	0,000000	0	0	NONE	NO_ALARM	-9,760000	0	0	NONE	NO_ALARM
2017/03/16 09:04:08.638696677	0,000000	0	0	NONE	NO_ALARM	-9,760000	0	0	NONE	NO_ALARM
2017/03/16 09:04:10.637775084	0,000000	0	0	NONE	NO_ALARM	-9,760000	0	0	NONE	NO_ALARM
2017/03/16 09:04:11.637573792	0,000000	0	0	NONE	NO_ALARM	-9,760000	0	0	NONE	NO_ALARM
2017/03/16 09:04:16.637722283	0,000000	0	0	NONE	NO_ALARM	-9,760000	0	0	NONE	NO_ALARM
2017/03/16 09:04:18.637344324	0,000000	0	0	NONE	NO_ALARM	-9,760000	0	0	NONE	NO_ALARM
2017/03/16 09:04:19.637307992	0,000000	0	0	NONE	NO_ALARM	-9,760000	0	0	NONE	NO_ALARM
2017/03/16 09:04:21.638079211	0,000000	0	0	NONE	NO_ALARM	-9,760000	0	0	NONE	NO_ALARM
2017/03/16 09:04:22.638406884	0,000000	0	0	NONE	NO_ALARM	-9,760000	0	0	NONE	NO_ALARM
2017/03/16 09:04:25.637403689	0,000000	0	0	NONE	NO_ALARM	-9,760000	0	0	NONE	NO_ALARM
2017/03/16 09:04:26.637442072	0,000000	0	0	NONE	NO_ALARM	-9,760000	0	0	NONE	NO_ALARM
2017/03/16 09:04:27.637564974	0,000000	0	0	NONE	NO_ALARM	-9,760000	0	0	NONE	NO_ALARM
2017/03/16 09:04:28.637795719	0,000000	0	0	NONE	NO_ALARM	-9,760000	0	0	NONE	NO_ALARM
2017/03/16 09:04:30.638224538	0,000000	0	0	NONE	NO_ALARM	-9,760000	0	0	NONE	NO_ALARM
2017/03/16 09:04:31.638188598	0,000000	0	0	NONE	NO_ALARM	-9,760000	0	0	NONE	NO_ALARM
2017/03/16 09:04:32.637972438	0,000000	0	0	NONE	NO_ALARM	-9,760000	0	0	NONE	NO_ALARM
2017/03/16 09:04:33.637492847	0,000000	0	0	NONE	NO_ALARM	-9,760000	0	0	NONE	NO_ALARM
2017/03/16 09:04:34.637606165	0,000000	0	0	NONE	NO_ALARM	-9,760000	0	0	NONE	NO_ALARM
2017/03/16 09:04:35.637579275	0,000000	0	0	NONE	NO_ALARM	-9,760000	0	0	NONE	NO_ALARM
2017/03/16 09:04:36.638154218	0,000000	0	0	NONE	NO_ALARM	-9,760000	0	0	NONE	NO_ALARM
2017/03/16 09:04:37.638363322	0,000000	0	0	NONE	NO_ALARM	-9,760000	0	0	NONE	NO_ALARM
2017/03/16 09:04:38.638325368	0,000000	0	0	NONE	NO_ALARM	-9,760000	0	0	NONE	NO_ALARM
2017/03/16 09:04:39.637808461	0,000000	0	0	NONE	NO_ALARM	-9,760000	0	0	NONE	NO_ALARM
2017/03/16 09:04:40.637718138	0,000000	0	0	NONE	NO_ALARM	-9,760000	0	0	NONE	NO_ALARM
2017/03/16 09:04:41.637837431	0,000000	0	0	NONE	NO_ALARM	-9,760000	0	0	NONE	NO_ALARM
2017/03/16 09:04:43.682489591	0,000000	0	0	NONE	NO_ALARM	-9,750000	0	0	NONE	NO_ALARM
2017/03/16 09:04:44.637345827	0,000000	0	0	NONE	NO_ALARM	-9,750000	0	0	NONE	NO_ALARM
2017/03/16 09:04:44.852529517	0,000000	0	0	NONE	NO_ALARM	-9,760000	0	0	NONE	NO_ALARM
2017/03/16 09:04:45.637726894	0,000000	0	0	NONE	NO_ALARM	-9,760000	0	0	NONE	NO_ALARM
2017/03/16 09:04:46.637330316	0,000000	0	0	NONE	NO_ALARM	-9,760000	0	0	NONE	NO_ALARM
2017/03/16 09:04:47.637318759	0,000000	0	0	NONE	NO_ALARM	-9,760000	0	0	NONE	NO_ALARM
2017/03/16 09:04:48.637832472	0,000000	0	0	NONE	NO_ALARM	-9,760000	0	0	NONE	NO_ALARM
2017/03/16 09:04:50.638205542	0,000000	0	0	NONE	NO_ALARM	-9,760000	0	0	NONE	NO_ALARM
2017/03/16 09:04:51.638212240	0,000000	0	0	NONE	NO_ALARM	-9,760000	0	0	NONE	NO_ALARM
2017/03/16 09:04:52.638310194	0,000000	0	0	NONE	NO_ALARM	-9,760000	0	0	NONE	NO_ALARM
2017/03/16 09:04:53.637676922	0,000000	0	0	NONE	NO_ALARM	-9,760000	0	0	NONE	NO_ALARM
2017/03/16 09:04:54.637589152	0,000000	0	0	NONE	NO_ALARM	-9,760000	0	0	NONE	NO_ALARM
2017/03/16 09:04:56.638053165	0,000000	0	0	NONE	NO_ALARM	-9,760000	0	0	NONE	NO_ALARM
2017/03/16 09:04:59.553198859	0,000000	0	0	NONE	NO_ALARM	-9,750000	0	0	NONE	NO_ALARM
2017/03/16 09:05:00.637886781	0,000000	0	0	NONE	NO_ALARM	-9,750000	0	0	NONE	NO_ALARM
2017/03/16 09:05:00.712095328	0,000000	0	0	NONE	NO_ALARM	-9,760000	0	0	NONE	NO_ALARM
2017/03/16 09:05:01.637986864	0,000000	0	0	NONE	NO_ALARM	-9,760000	0	0	NONE	NO_ALARM
2017/03/16 09:05:03.638004109	0,000000	0	0	NONE	NO_ALARM	-9,760000	0	0	NONE	NO_ALARM
2017/03/16 09:05:04.638208625	0,000000	0	0	NONE	NO_ALARM	-9,760000	0	0	NONE	NO_ALARM
2017/03/16 09:05:05.637519569	0,000000	0	0	NONE	NO_ALARM	-9,760000	0	0	NONE	NO_ALARM
2017/03/16 09:05:06.638456860	0,000000	0	0	NONE	NO_ALARM	-9,760000	0	0	NONE	NO_ALARM
2017/03/16 09:05:07.637687631	0,000000	0	0	NONE	NO_ALARM	-9,760000	0	0	NONE	NO_ALARM
2017/03/16 09:05:09.638039002	0,000000	0	0	NONE	NO_ALARM	-9,760000	0	0	NONE	NO_ALARM
2017/03/16 09:05:10.638076214	0,000000	0	0	NONE	NO_ALARM	-9,760000	0	0	NONE	NO_ALARM
2017/03/16 09:05:11.638381615	0,000000	0	0	NONE	NO_ALARM	-9,760000	0	0	NONE	NO_ALARM
2017/03/16 09:05:12.637976078	0,000000	0	0	NONE	NO_ALARM	-9,760000	0	0	NONE	NO_ALARM
2017/03/16 09:05:13.638532593	0,000000	0	0	NONE	NO_ALARM	-9,760000	0	0	NONE	NO_ALARM
2017/03/16 09:05:14.637897484	0,000000	0	0	NONE	NO_ALARM	-9,760000	0	0	NONE	NO_ALARM
2017/03/16 09:05:15.637529456	0,000000	0	0	NONE	NO_ALARM	-9,760000	0	0	NONE	NO_ALARM
2017/03/16 09:05:16.637754241	0,000000	0	0	NONE	NO_ALARM	-9,760000	0	0	NONE	NO_ALARM
2017/03/16 09:05:17.637488006	0,000000	0	0	NONE	NO_ALARM	-9,760000	0	0	NONE	NO_ALARM
2017/03/16 09:05:20.638631379	0,000000	0	0	NONE	NO_ALARM	-9,760000	0	0	NONE	NO_ALARM
2017/03/16 09:05:21.373067490	0,000000	0	0	NONE	NO_ALARM	-9,750000	0	0	NONE	NO_ALARM
2017/03/16 09:05:21.638265189	0,000000	0	0	NONE	NO_ALARM	-9,750000	0	0	NONE	NO_ALARM
2017/03/16 09:05:22.493177457	0,000000	0	0	NONE	NO_ALARM	-9,760000	0	0	NONE	NO_ALARM
2017/03/16 09:05:22.637818177	0,000000	0	0	NONE	NO_ALARM	-9,760000	0	0	NONE	NO_ALARM
2017/03/16 09:05:24.638281403	0,000000	0	0	NONE	NO_ALARM	-9,760000	0	0	NONE	NO_ALARM
2017/03/16 09:05:26.637500934	0,000000	0	0	NONE	NO_ALARM	-9,760000	0	0	NONE	NO_ALARM
2017/03/16 09:05:29.637954373	0,000000	0	0	NONE	NO_ALARM	-9,760000	0	0	NONE	NO_ALARM
2017/03/16 09:05:31.637803855	0,000000	0	0	NONE	NO_ALARM	-9,760000	0	0	NONE	NO_ALARM
2017/03/16 09:05:33.779877390	0,000000	0	0	NONE	NO_ALARM	-9,750000	0	0	NONE	NO_ALARM
2017/03/16 09:05:35.013583478	0,000000	0	0	NONE	NO_ALARM	-9,760000	0	0	NONE	NO_ALARM
2017/03/16 09:05:35.638515207	0,000000	0	0	NONE	NO_ALARM	-9,760000	0	0	NONE	NO_ALARM
2017/03/16 09:05:36.183015538	0,000000	0	0	NONE	NO_ALARM	-9,750000	0	0	NONE	NO_ALARM
2017/03/16 09:05:37.365729850	0,000000	0	0	NONE	NO_ALARM	-9,760000	0	0	NONE	NO_ALARM
2017/03/16 09:05:38.637460522	0,000000	0	0	NONE	NO_ALARM	-9,760000	0	0	NONE	NO_ALARM
2017/03/16 09:05:39.638395754	0,000000	0	0	NONE	NO_ALARM	-9,760000	0	0	NONE	NO_ALARM
2017/03/16 09:05:40.637965723	0,000000	0	0	NONE	NO_ALARM	-9,760000	0	0	NONE	NO_ALARM
2017/03/16 09:05:47.637523734	0,000000	0	0	NONE	NO_ALARM	-9,760000	0	0	NONE	NO_ALARM
2017/03/16 09:05:48.637666361	0,000000	0	0	NONE	NO_ALARM	-9,760000	0	0	NONE	NO_ALARM
2017/03/16 09:05:49.638205413	0,000000	0	0	NONE	NO_ALARM	-9,760000	0	0	NONE	NO_ALARM
2017/03/16 09:05:52.697395246	0,000000	0	0	NONE	NO_ALARM	-9,750000	0	0	NONE	NO_ALARM
2017/03/16 09:05:53.637469531	0,000000	0	0	NONE	NO_ALARM	-9,750000	0	0	NONE	NO_ALARM
2017/03/16 09:05:53.842143836	0,000000	0	0	NONE	NO_ALARM	-9,760000	0	0	NONE	NO_ALARM
2017/03/16 09:05:54.638151931	0,000000	0	0	NONE	NO_ALARM	-9,760000	0	0	NONE	NO_ALARM
2017/03/16 09:05:54.992886887	0,000000	0	0	NONE	NO_ALARM	-9,750000	0	0	NONE	NO_ALARM
2017/03/16 09:05:55.637941718	0,000000	0	0	NONE	NO_ALARM	-9,750000	0	0	NONE	NO_ALARM
2017/03/16 09:05:56.113013987	0,000000	0	0	NONE	NO_ALARM	-9,760000	0	0	NONE	NO_ALARM
2017/03/16 09:05:56.638640746	0,000000	0	0	NONE	NO_ALARM	-9,760000	0	0	NONE	NO_ALARM
2017/03/16 09:05:57.637927148	0,000000	0	0	NONE	NO_ALARM	-9,760000	0	0	NONE	NO_ALARM
2017/03/16 09:05:58.637921043	0,000000	0	0	NONE	NO_ALARM	-9,760000	0	0	NONE	NO_ALARM
2017/03/16 09:05:59.637561269	0,000000	0	0	NONE	NO_ALARM	-9,760000	0	0	NONE	NO_ALARM
2017/03/16 09:06:04.433136954	0,000000	0	0	NONE	NO_ALARM	-9,750000	0	0	NONE	NO_ALARM
2017/03/16 09:06:04.637370662	0,000000	0	0	NONE	NO_ALARM	-9,750000	0	0	NONE	NO_ALARM
2017/03/16 09:06:05.638351536	0,000000	0	0	NONE	NO_ALARM	-9,750000	0	0	NONE	NO_ALARM
2017/03/16 09:06:05.679977636	0,000000	0	0	NONE	NO_ALARM	-9,760000	0	0	NONE	NO_ALARM
2017/03/16 09:06:06.637898882	0,000000	0	0	NONE	NO_ALARM	-9,760000	0	0	NONE	NO_ALARM
2017/03/16 09:06:07.638470522	0,000000	0	0	NONE	NO_ALARM	-9,760000	0	0	NONE	NO_ALARM
2017/03/16 09:06:08.637787086	0,000000	0	0	NONE	NO_ALARM	-9,760000	0	0	NONE	NO_ALARM
2017/03/16 09:06:10.638109931	0,000000	0	0	NONE	NO_ALARM	-9,760000	0	0	NONE	NO_ALARM
2017/03/16 09:06:11.638066475	0,000000	0	0	NONE	NO_ALARM	-9,760000	0	0	NONE	NO_ALARM
2017/03/16 09:06:12.638212727	0,000000	0	0	NONE	NO_ALARM	-9,760000	0	0	NONE	NO_ALARM
2017/03/16 09:06:13.637666853	0,000000	0	0	NONE	NO_ALARM	-9,760000	0	0	NONE	NO_ALARM
2017/03/16 09:06:14.637392086	0,000000	0	0	NONE	NO_ALARM	-9,760000	0	0	NONE	NO_ALARM
2017/03/16 09:06:15.637597337	0,000000	0	0	NONE	NO_ALARM	-9,760000	0	0	NONE	NO_ALARM
2017/03/16 09:06:16.638259682	0,000000	0	0	NONE	NO_ALARM	-9,760000	0	0	NONE	NO_ALARM
2017/03/16 09:06:17.638411769	0,000000	0	0	NONE	NO_ALARM	-9,760000	0	0	NONE	NO_ALARM
2017/03/16 09:06:18.637971628	0,000000	0	0	NONE	NO_ALARM	-9,760000	0	0	NONE	NO_ALARM
2017/03/16 09:06:19.637946941	0,000000	0	0	NONE	NO_ALARM	-9,760000	0	0	NONE	NO_ALARM
2017/03/16 09:06:20.637506348	0,000000	0	0	NONE	NO_ALARM	-9,760000	0	0	NONE	NO_ALARM
2017/03/16 09:06:22.638310668	0,000000	0	0	NONE	NO_ALARM	-9,760000	0	0	NONE	NO_ALARM
2017/03/16 09:06:23.638010506	0,000000	0	0	NONE	NO_ALARM	-9,760000	0	0	NONE	NO_ALARM
2017/03/16 09:06:24.637975691	0,000000	0	0	NONE	NO_ALARM	-9,760000	0	0	NONE	NO_ALARM
2017/03/16 09:06:25.637472994	0,000000	0	0	NONE	NO_ALARM	-9,760000	0	0	NONE	NO_ALARM
2017/03/16 09:06:27.373065306	0,000000	0	0	NONE	NO_ALARM	-9,750000	0	0	NONE	NO_ALARM
2017/03/16 09:06:27.638596825	0,000000	0	0	NONE	NO_ALARM	-9,750000	0	0	NONE	NO_ALARM
2017/03/16 09:06:28.612967309	0,000000	0	0	NONE	NO_ALARM	-9,760000	0	0	NONE	NO_ALARM
2017/03/16 09:06:28.637599124	0,000000	0	0	NONE	NO_ALARM	-9,760000	0	0	NONE	NO_ALARM
2017/03/16 09:06:30.637758880	0,000000	0	0	NONE	NO_ALARM	-9,760000	0	0	NONE	NO_ALARM
2017/03/16 09:06:32.638063647	0,000000	0	0	NONE	NO_ALARM	-9,760000	0	0	NONE	NO_ALARM
2017/03/16 09:06:33.384407025	0,000000	0	0	NONE	NO_ALARM	-9,750000	0	0	NONE	NO_ALARM
2017/03/16 09:06:33.638599770	0,000000	0	0	NONE	NO_ALARM	-9,750000	0	0	NONE	NO_ALARM
2017/03/16 09:06:34.568020497	0,000000	0	0	NONE	NO_ALARM	-9,760000	0	0	NONE	NO_ALARM
2017/03/16 09:06:34.637940514	0,000000	0	0	NONE	NO_ALARM	-9,760000	0	0	NONE	NO_ALARM
2017/03/16 09:06:35.637324554	0,000000	0	0	NONE	NO_ALARM	-9,760000	0	0	NONE	NO_ALARM
2017/03/16 09:06:36.637609277	0,000000	0	0	NONE	NO_ALARM	-9,760000	0	0	NONE	NO_ALARM
2017/03/16 09:06:37.638204091	0,000000	0	0	NONE	NO_ALARM	-9,760000	0	0	NONE	NO_ALARM
2017/03/16 09:06:38.638343313	0,000000	0	0	NONE	NO_ALARM	-9,760000	0	0	NONE	NO_ALARM
2017/03/16 09:06:39.637979594	0,000000	0	0	NONE	NO_ALARM	-9,760000	0	0	NONE	NO_ALARM
2017/03/16 09:06:41.637962452	0,000000	0	0	NONE	NO_ALARM	-9,760000	0	0	NONE	NO_ALARM
2017/03/16 09:06:42.637434817	0,000000	0	0	NONE	NO_ALARM	-9,760000	0	0	NONE	NO_ALARM
2017/03/16 09:06:43.638137078	0,000000	0	0	NONE	NO_ALARM	-9,760000	0	0	NONE	NO_ALARM
2017/03/16 09:06:44.638221215	0,000000	0	0	NONE	NO_ALARM	-9,760000	0	0	NONE	NO_ALARM
2017/03/16 09:06:46.637918630	0,000000	0	0	NONE	NO_ALARM	-9,760000	0	0	NONE	NO_ALARM
2017/03/16 09:06:47.638652251	0,000000	0	0	NONE	NO_ALARM	-9,760000	0	0	NONE	NO_ALARM
2017/03/16 09:06:48.638321945	0,000000	0	0	NONE	NO_ALARM	-9,760000	0	0	NONE	NO_ALARM
2017/03/16 09:06:49.637959758	0,000000	0	0	NONE	NO_ALARM	-9,760000	0	0	NONE	NO_ALARM
2017/03/16 09:06:51.603858758	0,000000	0	0	NONE	NO_ALARM	-9,750000	0	0	NONE	NO_ALARM
2017/03/16 09:06:52.637925889	0,000000	0	0	NONE	NO_ALARM	-9,750000	0	0	NONE	NO_ALARM
2017/03/16 09:06:53.637593693	0,000000	0	0	NONE	NO_ALARM	-9,750000	0	0	NONE	NO_ALARM
2017/03/16 09:06:53.924623806	0,000000	0	0	NONE	NO_ALARM	-9,760000	0	0	NONE	NO_ALARM
2017/03/16 09:06:55.692917574	0,000000	0	0	NONE	NO_ALARM	-9,750000	0	0	NONE	NO_ALARM
2017/03/16 09:06:56.869709710	0,000000	0	0	NONE	NO_ALARM	-9,760000	0	0	NONE	NO_ALARM
2017/03/16 09:06:57.638284386	0,000000	0	0	NONE	NO_ALARM	-9,760000	0	0	NONE	NO_ALARM
2017/03/16 09:06:58.638249306	0,000000	0	0	NONE	NO_ALARM	-9,760000	0	0	NONE	NO_ALARM
2017/03/16 09:06:59.638400000	0,000000	0	0	NONE	NO_ALARM	-9,760000	0	0	NONE	NO_ALARM
2017/03/16 09:07:01.638467847	0,000000	0	0	NONE	NO_ALARM	-9,760000	0	0	NONE	NO_ALARM
2017/03/16 09:07:02.638217157	0,000000	0	0	NONE	NO_ALARM	-9,760000	0	0	NONE	NO_ALARM
2017/03/16 09:07:06.637917154	0,000000	0	0	NONE	NO_ALARM	-9,760000	0	0	NONE	NO_ALARM
2017/03/16 09:07:06.711146782	0,000000	0	0	NONE	NO_ALARM	-9,750000	0	0	NONE	NO_ALARM
2017/03/16 09:07:07.637601276	0,000000	0	0	NONE	NO_ALARM	-9,750000	0	0	NONE	NO_ALARM
2017/03/16 09:07:07.808574153	0,000000	0	0	NONE	NO_ALARM	-9,760000	0	0	NONE	NO_ALARM
2017/03/16 09:07:08.638051784	0,000000	0	0	NONE	NO_ALARM	-9,760000	0	0	NONE	NO_ALARM
2017/03/16 09:07:09.638325100	0,000000	0	0	NONE	NO_ALARM	-9,760000	0	0	NONE	NO_ALARM
2017/03/16 09:07:10.637745133	0,000000	0	0	NONE	NO_ALARM	-9,760000	0	0	NONE	NO_ALARM
2017/03/16 09:07:11.637991750	0,000000	0	0	NONE	NO_ALARM	-9,760000	0	0	NONE	NO_ALARM
2017/03/16 09:07:12.637221764	0,000000	0	0	NONE	NO_ALARM	-9,760000	0	0	NONE	NO_ALARM
2017/03/16 09:07:13.637458010	0,000000	0	0	NONE	NO_ALARM	-9,760000	0	0	NONE	NO_ALARM
2017/03/16 09:07:14.638108104	0,000000	0	0	NONE	NO_ALARM	-9,760000	0	0	NONE	NO_ALARM
2017/03/16 09:07:15.637949621	0,000000	0	0	NONE	NO_ALARM	-9,760000	0	0	NONE	NO_ALARM
2017/03/16 09:07:16.639012811	0,000000	0	0	NONE	NO_ALARM	-9,750000	0	0	NONE	NO_ALARM
2017/03/16 09:07:17.243103207	0,000000	0	0	NONE	NO_ALARM	-9,760000	0	0	NONE	NO_ALARM
2017/03/16 09:07:17.637699458	0,000000	0	0	NONE	NO_ALARM	-9,760000	0	0	NONE	NO_ALARM
2017/03/16 09:07:18.638183772	0,000000	0	0	NONE	NO_ALARM	-9,760000	0	0	NONE	NO_ALARM
2017/03/16 09:07:19.638041007	0,000000	0	0	NONE	NO_ALARM	-9,760000	0	0	NONE	NO_ALARM
2017/03/16 09:07:21.322265692	0,000000	0	0	NONE	NO_ALARM	-9,750000	0	0	NONE	NO_ALARM
2017/03/16 09:07:21.637623082	0,000000	0	0	NONE	NO_ALARM	-9,750000	0	0	NONE	NO_ALARM
2017/03/16 09:07:22.512999660	0,000000	0	0	NONE	NO_ALARM	-9,760000	0	0	NONE	NO_ALARM
2017/03/16 09:07:22.637553310	0,000000	0	0	NONE	NO_ALARM	-9,760000	0	0	NONE	NO_ALARM
2017/03/16 09:07:25.638293280	0,000000	0	0	NONE	NO_ALARM	-9,760000	0	0	NONE	NO_ALARM
2017/03/16 09:07:27.637481121	0,000000	0	0	NONE	NO_ALARM	-9,760000	0	0	NONE	NO_ALARM
2017/03/16 09:07:28.638006258	0,000000	0	0	NONE	NO_ALARM	-9,760000	0	0	NONE	NO_ALARM
2017/03/16 09:07:29.637950256	0,000000	0	0	NONE	NO_ALARM	-9,760000	0	0	NONE	NO_ALARM
2017/03/16 09:07:30.638128042	0,000000	0	0	NONE	NO_ALARM	-9,760000	0	0	NONE	NO_ALARM
2017/03/16 09:07:31.637898260	0,000000	0	0	NONE	NO_ALARM	-9,760000	0	0	NONE	NO_ALARM
2017/03/16 09:07:32.637823459	0,000000	0	0	NONE	NO_ALARM	-9,760000	0	0	NONE	NO_ALARM
2017/03/16 09:07:34.637888534	0,000000	0	0	NONE	NO_ALARM	-9,760000	0	0	NONE	NO_ALARM
2017/03/16 09:07:35.637874396	0,000000	0	0	NONE	NO_ALARM	-9,760000	0	0	NONE	NO_ALARM
2017/03/16 09:07:36.638166530	0,000000	0	0	NONE	NO_ALARM	-9,760000	0	0	NONE	NO_ALARM
2017/03/16 09:07:38.254856452	0,000000	0	0	NONE	NO_ALARM	-9,750000	0	0	NONE	NO_ALARM
2017/03/16 09:07:38.637430995	0,000000	0	0	NONE	NO_ALARM	-9,750000	0	0	NONE	NO_ALARM
2017/03/16 09:07:39.418460812	0,000000	0	0	NONE	NO_ALARM	-9,760000	0	0	NONE	NO_ALARM
2017/03/16 09:07:40.638067213	0,000000	0	0	NONE	NO_ALARM	-9,760000	0	0	NONE	NO_ALARM
2017/03/16 09:07:41.273168381	0,000000	0	0	NONE	NO_ALARM	-9,750000	0	0	NONE	NO_ALARM
2017/03/16 09:07:42.418842170	0,000000	0	0	NONE	NO_ALARM	-9,760000	0	0	NONE	NO_ALARM
2017/03/16 09:07:43.637810226	0,000000	0	0	NONE	NO_ALARM	-9,760000	0	0	NONE	NO_ALARM
2017/03/16 09:07:45.637514462	0,000000	0	0	NONE	NO_ALARM	-9,760000	0	0	NONE	NO_ALARM
2017/03/16 09:07:46.638261951	0,000000	0	0	NONE	NO_ALARM	-9,760000	0	0	NONE	NO_ALARM
2017/03/16 09:07:49.637679785	0,000000	0	0	NONE	NO_ALARM	-9,760000	0	0	NONE	NO_ALARM
2017/03/16 09:07:50.638243611	0,000000	0	0	NONE	NO_ALARM	-9,760000	0	0	NONE	NO_ALARM
2017/03/16 09:07:51.638107742	0,000000	0	0	NONE	NO_ALARM	-9,760000	0	0	NONE	NO_ALARM
2017/03/16 09:07:52.182979184	0,000000	0	0	NONE	NO_ALARM	-9,750000	0	0	NONE	NO_ALARM
2017/03/16 09:07:53.367548064	0,000000	0	0	NONE	NO_ALARM	-9,760000	0	0	NONE	NO_ALARM
2017/03/16 09:07:53.638151377	0,000000	0	0	NONE	NO_ALARM	-9,760000	0	0	NONE	NO_ALARM
2017/03/16 09:07:54.637462145	0,000000	0	0	NONE	NO_ALARM	-9,760000	0	0	NONE	NO_ALARM
2017/03/16 09:07:55.637079213	0,000000	0	0	NONE	NO_ALARM	-9,760000	0	0	NONE	NO_ALARM
2017/03/16 09:07:56.637914596	0,000000	0	0	NONE	NO_ALARM	-9,760000	0	0	NONE	NO_ALARM
2017/03/16 09:07:57.638122178	0,000000	0	0	NONE	NO_ALARM	-9,760000	0	0	NONE	NO_ALARM
2017/03/16 09:07:58.202891421	0,000000	0	0	NONE	NO_ALARM	-9,750000	0	0	NONE	NO_ALARM
2017/03/16 09:07:59.443028001	0,000000	0	0	NONE	NO_ALARM	-9,760000	0	0	NONE	NO_ALARM
2017/03/16 09:08:00.638425108	0,000000	0	0	NONE	NO_ALARM	-9,760000	0	0	NONE	NO_ALARM
2017/03/16 09:08:01.637902989	0,000000	0	0	NONE	NO_ALARM	-9,760000	0	0	NONE	NO_ALARM
2017/03/16 09:08:02.638007613	0,000000	0	0	NONE	NO_ALARM	-9,760000	0	0	NONE	NO_ALARM
2017/03/16 09:08:03.637964068	0,000000	0	0	NONE	NO_ALARM	-9,760000	0	0	NONE	NO_ALARM
2017/03/16 09:08:04.637881190	0,000000	0	0	NONE	NO_ALARM	-9,760000	0	0	NONE	NO_ALARM
2017/03/16 09:08:05.637883391	0,000000	0	0	NONE	NO_ALARM	-9,760000	0	0	NONE	NO_ALARM
2017/03/16 09:08:10.637988647	0,000000	0	0	NONE	NO_ALARM	-9,760000	0	0	NONE	NO_ALARM
2017/03/16 09:08:11.638533365	0,000000	0	0	NONE	NO_ALARM	-9,760000	0	0	NONE	NO_ALARM
2017/03/16 09:08:12.638820792	0,000000	0	0	NONE	NO_ALARM	-9,760000	0	0	NONE	NO_ALARM
2017/03/16 09:08:13.637560020	0,000000	0	0	NONE	NO_ALARM	-9,760000	0	0	NONE	NO_ALARM
2017/03/16 09:08:15.637975337	0,000000	0	0	NONE	NO_ALARM	-9,760000	0	0	NONE	NO_ALARM
2017/03/16 09:08:16.637460912	0,000000	0	0	NONE	NO_ALARM	-9,760000	0	0	NONE	NO_ALARM
2017/03/16 09:08:17.637775848	0,000000	0	0	NONE	NO_ALARM	-9,760000	0	0	NONE	NO_ALARM
2017/03/16 09:08:19.638231649	0,000000	0	0	NONE	NO_ALARM	-9,760000	0	0	NONE	NO_ALARM
2017/03/16 09:08:20.073997012	0,000000	0	0	NONE	NO_ALARM	-9,750000	0	0	NONE	NO_ALARM
2017/03/16 09:08:20.637918060	0,000000	0	0	NONE	NO_ALARM	-9,750000	0	0	NONE	NO_ALARM
2017/03/16 09:08:21.233170184	0,000000	0	0	NONE	NO_ALARM	-9,760000	0	0	NONE	NO_ALARM
2017/03/16 09:08:27.637474103	0,000000	0	0	NONE	NO_ALARM	-9,760000	0	0	NONE	NO_ALARM
2017/03/16 09:08:28.637632780	0,000000	0	0	NONE	NO_ALARM	-9,760000	0	0	NONE	NO_ALARM
2017/03/16 09:08:28.773195814	0,000000	0	0	NONE	NO_ALARM	-9,750000	0	0	NONE	NO_ALARM
2017/03/16 09:08:29.942594580	0,000000	0	0	NONE	NO_ALARM	-9,760000	0	0	NONE	NO_ALARM
2017/03/16 09:08:30.638105585	0,000000	0	0	NONE	NO_ALARM	-9,760000	0	0	NONE	NO_ALARM
2017/03/16 09:08:31.638410644	0,000000	0	0	NONE	NO_ALARM	-9,760000	0	0	NONE	NO_ALARM
2017/03/16 09:08:32.637761557	0,000000	0	0	NONE	NO_ALARM	-9,760000	0	0	NONE	NO_ALARM
2017/03/16 09:08:33.638583232	0,000000	0	0	NONE	NO_ALARM	-9,760000	0	0	NONE	NO_ALARM
2017/03/16 09:08:34.637716670	0,000000	0	0	NONE	NO_ALARM	-9,760000	0	0	NONE	NO_ALARM
2017/03/16 09:08:36.637876572	0,000000	0	0	NONE	NO_ALARM	-9,760000	0	0	NONE	NO_ALARM
2017/03/16 09:08:37.637625825	0,000000	0	0	NONE	NO_ALARM	-9,760000	0	0	NONE	NO_ALARM
2017/03/16 09:08:38.638182480	0,000000	0	0	NONE	NO_ALARM	-9,760000	0	0	NONE	NO_ALARM
2017/03/16 09:08:39.637808794	0,000000	0	0	NONE	NO_ALARM	-9,760000	0	0	NONE	NO_ALARM
2017/03/16 09:08:40.638360099	0,000000	0	0	NONE	NO_ALARM	-9,760000	0	0	NONE	NO_ALARM
2017/03/16 09:08:42.637537312	0,000000	0	0	NONE	NO_ALARM	-9,760000	0	0	NONE	NO_ALARM
2017/03/16 09:08:43.637691921	0,000000	0	0	NONE	NO_ALARM	-9,760000	0	0	NONE	NO_ALARM
2017/03/16 09:08:44.637199145	0,000000	0	0	NONE	NO_ALARM	-9,760000	0	0	NONE	NO_ALARM
2017/03/16 09:08:47.638658333	0,000000	0	0	NONE	NO_ALARM	-9,760000	0	0	NONE	NO_ALARM
2017/03/16 09:08:48.637989806	0,000000	0	0	NONE	NO_ALARM	-9,760000	0	0	NONE	NO_ALARM
2017/03/16 09:08:49.637992422	0,000000	0	0	NONE	NO_ALARM	-9,760000	0	0	NONE	NO_ALARM
2017/03/16 09:08:50.638357262	0,000000	0	0	NONE	NO_ALARM	-9,760000	0	0	NONE	NO_ALARM
2017/03/16 09:08:51.637723717	0,000000	0	0	NONE	NO_ALARM	-9,760000	0	0	NONE	NO_ALARM
2017/03/16 09:08:53.637590081	0,000000	0	0	NONE	NO_ALARM	-9,760000	0	0	NONE	NO_ALARM
2017/03/16 09:08:55.637778890	0,000000	0	0	NONE	NO_ALARM	-9,760000	0	0	NONE	NO_ALARM
2017/03/16 09:08:56.637963225	0,000000	0	0	NONE	NO_ALARM	-9,760000	0	0	NONE	NO_ALARM
2017/03/16 09:08:59.638319830	0,000000	0	0	NONE	NO_ALARM	-9,760000	0	0	NONE	NO_ALARM
2017/03/16 09:09:02.637815710	0,000000	0	0	NONE	NO_ALARM	-9,760000	0	0	NONE	NO_ALARM
2017/03/16 09:09:03.637771617	0,000000	0	0	NONE	NO_ALARM	-9,760000	0	0	NONE	NO_ALARM
2017/03/16 09:09:04.638219568	0,000000	0	0	NONE	NO_ALARM	-9,760000	0	0	NONE	NO_ALARM
2017/03/16 09:09:05.637318418	0,000000	0	0	NONE	NO_ALARM	-9,760000	0	0	NONE	NO_ALARM
2017/03/16 09:09:06.638254360	0,000000	0	0	NONE	NO_ALARM	-9,760000	0	0	NONE	NO_ALARM
2017/03/16 09:09:07.637846422	0,000000	0	0	NONE	NO_ALARM	-9,760000	0	0	NONE	NO_ALARM
2017/03/16 09:09:08.637797734	0,000000	0	0	NONE	NO_ALARM	-9,760000	0	0	NONE	NO_ALARM
2017/03/16 09:09:08.844589363	0,000000	0	0	NONE	NO_ALARM	-9,750000	0	0	NONE	NO_ALARM