# Created by CSS Data Browser Version 4.1.4.201507131348
# 
# Start Time : 2016-10-24 11:24:00.000 +0200
# End Time   : 2016-10-24 12:24:00.000 +0200
# Source     : Plot
# Format     : Decimal (6 digits)
# 
# Data is in TAB-delimited columns, should import into e.g. Excel

# Channel: STEAM:PNC:GetVolt
# Archives:
# 
# Channel: STEAM:PNC:GetCurr
# Archives:
# 

# Time	STEAM:PNC:GetVolt Value	Negative Error	Positive Error	Severity	Status	STEAM:PNC:GetCurr Value	Negative Error	Positive Error	Severity	Status
2016/10/24 09:28:25.927910613	#N/A	#N/A	#N/A	#N/A	#N/A	0,000000	0	0	NONE	NO_ALARM
2016/10/24 11:23:04.489307822	0,000000	0	0	NONE	NO_ALARM	0,000000	0	0	NONE	NO_ALARM
2016/10/24 11:24:04.320245175	0,003000	0	0	NONE	NO_ALARM	0,000000	0	0	NONE	NO_ALARM
2016/10/24 11:24:06.320272260	0,539000	0	0	NONE	NO_ALARM	0,000000	0	0	NONE	NO_ALARM
2016/10/24 11:24:07.320242551	0,480000	0	0	NONE	NO_ALARM	0,000000	0	0	NONE	NO_ALARM
2016/10/24 11:24:08.320233425	0,493000	0	0	NONE	NO_ALARM	0,000000	0	0	NONE	NO_ALARM
2016/10/24 11:24:09.320262932	0,490000	0	0	NONE	NO_ALARM	0,000000	0	0	NONE	NO_ALARM
2016/10/24 11:24:09.927897875	0,490000	0	0	NONE	NO_ALARM	0,002400	0	0	NONE	NO_ALARM
2016/10/24 11:24:10.320221455	0,952000	0	0	NONE	NO_ALARM	0,002400	0	0	NONE	NO_ALARM
2016/10/24 11:24:11.320246311	0,983000	0	0	NONE	NO_ALARM	0,002400	0	0	NONE	NO_ALARM
2016/10/24 11:24:11.927917487	0,983000	0	0	NONE	NO_ALARM	0,000000	0	0	NONE	NO_ALARM
2016/10/24 11:24:14.320253709	1,463000	0	0	NONE	NO_ALARM	0,000000	0	0	NONE	NO_ALARM
2016/10/24 11:24:15.320270306	1,568000	0	0	NONE	NO_ALARM	0,000000	0	0	NONE	NO_ALARM
2016/10/24 11:24:16.320266108	1,519000	0	0	NONE	NO_ALARM	0,000000	0	0	NONE	NO_ALARM
2016/10/24 11:24:17.927902074	1,519000	0	0	NONE	NO_ALARM	0,000600	0	0	NONE	NO_ALARM
2016/10/24 11:24:18.320242640	1,568000	0	0	NONE	NO_ALARM	0,000600	0	0	NONE	NO_ALARM
2016/10/24 11:24:18.927912608	1,568000	0	0	NONE	NO_ALARM	0,000000	0	0	NONE	NO_ALARM
2016/10/24 11:24:19.320249087	1,981000	0	0	NONE	NO_ALARM	0,000000	0	0	NONE	NO_ALARM
2016/10/24 11:24:20.320276598	1,960000	0	0	NONE	NO_ALARM	0,000000	0	0	NONE	NO_ALARM
2016/10/24 11:24:21.320247090	2,107000	0	0	NONE	NO_ALARM	0,000000	0	0	NONE	NO_ALARM
2016/10/24 11:24:22.320245625	1,960000	0	0	NONE	NO_ALARM	0,000000	0	0	NONE	NO_ALARM
2016/10/24 11:24:22.927897662	1,960000	0	0	NONE	NO_ALARM	0,004900	0	0	NONE	NO_ALARM
2016/10/24 11:24:23.320240438	1,984000	0	0	NONE	NO_ALARM	0,004900	0	0	NONE	NO_ALARM
2016/10/24 11:24:23.927907641	1,984000	0	0	NONE	NO_ALARM	0,000300	0	0	NONE	NO_ALARM
2016/10/24 11:24:24.320237685	2,446000	0	0	NONE	NO_ALARM	0,000300	0	0	NONE	NO_ALARM
2016/10/24 11:24:24.927904690	2,446000	0	0	NONE	NO_ALARM	0,000000	0	0	NONE	NO_ALARM
2016/10/24 11:24:25.320233124	2,523000	0	0	NONE	NO_ALARM	0,000000	0	0	NONE	NO_ALARM
2016/10/24 11:24:26.320254549	2,459000	0	0	NONE	NO_ALARM	0,000000	0	0	NONE	NO_ALARM
2016/10/24 11:24:27.320248292	2,548000	0	0	NONE	NO_ALARM	0,000000	0	0	NONE	NO_ALARM
2016/10/24 11:24:27.927916528	2,548000	0	0	NONE	NO_ALARM	0,000100	0	0	NONE	NO_ALARM
2016/10/24 11:24:28.320270478	2,936000	0	0	NONE	NO_ALARM	0,000100	0	0	NONE	NO_ALARM
2016/10/24 11:24:28.927915213	2,936000	0	0	NONE	NO_ALARM	0,000000	0	0	NONE	NO_ALARM
2016/10/24 11:24:29.320247899	2,943000	0	0	NONE	NO_ALARM	0,000000	0	0	NONE	NO_ALARM
2016/10/24 11:24:30.320247764	2,949000	0	0	NONE	NO_ALARM	0,000000	0	0	NONE	NO_ALARM
2016/10/24 11:24:31.320308483	2,989000	0	0	NONE	NO_ALARM	0,000000	0	0	NONE	NO_ALARM
2016/10/24 11:24:32.410749007	3,426000	0	0	NONE	NO_ALARM	0,000000	0	0	NONE	NO_ALARM
2016/10/24 11:24:33.320249539	3,503000	0	0	NONE	NO_ALARM	0,000000	0	0	NONE	NO_ALARM
2016/10/24 11:24:35.927934522	3,503000	0	0	NONE	NO_ALARM	0,000900	0	0	NONE	NO_ALARM
2016/10/24 11:24:36.320271265	3,987000	0	0	NONE	NO_ALARM	0,000900	0	0	NONE	NO_ALARM
2016/10/24 11:24:36.927920975	3,987000	0	0	NONE	NO_ALARM	0,001200	0	0	NONE	NO_ALARM
2016/10/24 11:24:37.320263640	3,929000	0	0	NONE	NO_ALARM	0,001200	0	0	NONE	NO_ALARM
2016/10/24 11:24:37.927924277	3,929000	0	0	NONE	NO_ALARM	0,000000	0	0	NONE	NO_ALARM
2016/10/24 11:24:38.320283125	4,116000	0	0	NONE	NO_ALARM	0,000000	0	0	NONE	NO_ALARM
2016/10/24 11:24:39.320304537	3,965000	0	0	NONE	NO_ALARM	0,000000	0	0	NONE	NO_ALARM
2016/10/24 11:24:41.320332509	4,116000	0	0	NONE	NO_ALARM	0,000000	0	0	NONE	NO_ALARM
2016/10/24 11:24:41.927896565	4,116000	0	0	NONE	NO_ALARM	0,000700	0	0	NONE	NO_ALARM
2016/10/24 11:24:42.320246894	4,557000	0	0	NONE	NO_ALARM	0,000700	0	0	NONE	NO_ALARM
2016/10/24 11:24:42.927902332	4,557000	0	0	NONE	NO_ALARM	0,002700	0	0	NONE	NO_ALARM
2016/10/24 11:24:43.320245410	4,477000	0	0	NONE	NO_ALARM	0,002700	0	0	NONE	NO_ALARM
2016/10/24 11:24:43.927914026	4,477000	0	0	NONE	NO_ALARM	0,000000	0	0	NONE	NO_ALARM
2016/10/24 11:24:44.320244951	4,511000	0	0	NONE	NO_ALARM	0,000000	0	0	NONE	NO_ALARM
2016/10/24 11:24:45.320285527	4,477000	0	0	NONE	NO_ALARM	0,000000	0	0	NONE	NO_ALARM
2016/10/24 11:24:45.927950381	4,477000	0	0	NONE	NO_ALARM	0,000100	0	0	NONE	NO_ALARM
2016/10/24 11:24:46.320271943	4,486000	0	0	NONE	NO_ALARM	0,000100	0	0	NONE	NO_ALARM
2016/10/24 11:24:46.927903674	4,486000	0	0	NONE	NO_ALARM	0,000000	0	0	NONE	NO_ALARM
2016/10/24 11:24:47.320250511	4,483000	0	0	NONE	NO_ALARM	0,000000	0	0	NONE	NO_ALARM
2016/10/24 11:24:48.320220940	4,455000	0	0	NONE	NO_ALARM	0,000000	0	0	NONE	NO_ALARM
2016/10/24 11:24:48.930716003	4,455000	0	0	NONE	NO_ALARM	0,000900	0	0	NONE	NO_ALARM
2016/10/24 11:24:49.323052180	4,982000	0	0	NONE	NO_ALARM	0,000900	0	0	NONE	NO_ALARM
2016/10/24 11:24:49.927901111	4,982000	0	0	NONE	NO_ALARM	0,000300	0	0	NONE	NO_ALARM
2016/10/24 11:24:50.320238895	5,013000	0	0	NONE	NO_ALARM	0,000300	0	0	NONE	NO_ALARM
2016/10/24 11:24:50.927909193	5,013000	0	0	NONE	NO_ALARM	0,000900	0	0	NONE	NO_ALARM
2016/10/24 11:24:51.320243458	4,988000	0	0	NONE	NO_ALARM	0,000900	0	0	NONE	NO_ALARM
2016/10/24 11:24:51.927903447	4,988000	0	0	NONE	NO_ALARM	0,000600	0	0	NONE	NO_ALARM
2016/10/24 11:24:52.320232472	5,010000	0	0	NONE	NO_ALARM	0,000600	0	0	NONE	NO_ALARM
2016/10/24 11:24:52.927899660	5,010000	0	0	NONE	NO_ALARM	0,000000	0	0	NONE	NO_ALARM
2016/10/24 11:24:53.320219960	4,994000	0	0	NONE	NO_ALARM	0,000000	0	0	NONE	NO_ALARM
2016/10/24 11:24:53.927917356	4,994000	0	0	NONE	NO_ALARM	0,001200	0	0	NONE	NO_ALARM
2016/10/24 11:24:54.320252261	4,998000	0	0	NONE	NO_ALARM	0,001200	0	0	NONE	NO_ALARM
2016/10/24 11:24:54.927943013	4,998000	0	0	NONE	NO_ALARM	0,000600	0	0	NONE	NO_ALARM
2016/10/24 11:24:55.320277543	5,010000	0	0	NONE	NO_ALARM	0,000600	0	0	NONE	NO_ALARM
2016/10/24 11:24:55.927955921	5,010000	0	0	NONE	NO_ALARM	0,000000	0	0	NONE	NO_ALARM
2016/10/24 11:24:56.927923032	5,010000	0	0	NONE	NO_ALARM	0,001300	0	0	NONE	NO_ALARM
2016/10/24 11:24:57.320342262	5,512000	0	0	NONE	NO_ALARM	0,001300	0	0	NONE	NO_ALARM
2016/10/24 11:24:57.927934320	5,512000	0	0	NONE	NO_ALARM	0,000400	0	0	NONE	NO_ALARM
2016/10/24 11:24:58.320292052	5,491000	0	0	NONE	NO_ALARM	0,000400	0	0	NONE	NO_ALARM
2016/10/24 11:24:58.927944786	5,491000	0	0	NONE	NO_ALARM	0,000300	0	0	NONE	NO_ALARM
2016/10/24 11:24:59.320315380	5,503000	0	0	NONE	NO_ALARM	0,000300	0	0	NONE	NO_ALARM
2016/10/24 11:24:59.927937684	5,503000	0	0	NONE	NO_ALARM	0,000600	0	0	NONE	NO_ALARM
2016/10/24 11:25:00.927927199	5,503000	0	0	NONE	NO_ALARM	0,001500	0	0	NONE	NO_ALARM
2016/10/24 11:25:01.320280299	5,481000	0	0	NONE	NO_ALARM	0,001500	0	0	NONE	NO_ALARM
2016/10/24 11:25:01.927893485	5,481000	0	0	NONE	NO_ALARM	0,000300	0	0	NONE	NO_ALARM
2016/10/24 11:25:02.320225183	5,503000	0	0	NONE	NO_ALARM	0,000300	0	0	NONE	NO_ALARM
2016/10/24 11:25:03.320247926	5,497000	0	0	NONE	NO_ALARM	0,000300	0	0	NONE	NO_ALARM
2016/10/24 11:25:03.927913518	5,497000	0	0	NONE	NO_ALARM	0,000100	0	0	NONE	NO_ALARM
2016/10/24 11:25:04.320242850	5,484000	0	0	NONE	NO_ALARM	0,000100	0	0	NONE	NO_ALARM
2016/10/24 11:25:04.927902261	5,484000	0	0	NONE	NO_ALARM	0,000300	0	0	NONE	NO_ALARM
2016/10/24 11:25:05.320253549	5,503000	0	0	NONE	NO_ALARM	0,000300	0	0	NONE	NO_ALARM
2016/10/24 11:25:05.927921737	5,503000	0	0	NONE	NO_ALARM	0,000400	0	0	NONE	NO_ALARM
2016/10/24 11:25:06.320257582	5,491000	0	0	NONE	NO_ALARM	0,000400	0	0	NONE	NO_ALARM
2016/10/24 11:25:06.927917389	5,491000	0	0	NONE	NO_ALARM	0,000300	0	0	NONE	NO_ALARM
2016/10/24 11:25:07.320254696	5,494000	0	0	NONE	NO_ALARM	0,000300	0	0	NONE	NO_ALARM
2016/10/24 11:25:07.927903644	5,494000	0	0	NONE	NO_ALARM	0,000400	0	0	NONE	NO_ALARM
2016/10/24 11:25:08.927913880	5,494000	0	0	NONE	NO_ALARM	0,002400	0	0	NONE	NO_ALARM
2016/10/24 11:25:09.320246860	5,472000	0	0	NONE	NO_ALARM	0,002400	0	0	NONE	NO_ALARM
2016/10/24 11:25:09.927915053	5,472000	0	0	NONE	NO_ALARM	0,000300	0	0	NONE	NO_ALARM
2016/10/24 11:25:10.320251921	5,518000	0	0	NONE	NO_ALARM	0,000300	0	0	NONE	NO_ALARM
2016/10/24 11:25:10.927900280	5,518000	0	0	NONE	NO_ALARM	0,000100	0	0	NONE	NO_ALARM
2016/10/24 11:25:11.320233049	5,500000	0	0	NONE	NO_ALARM	0,000100	0	0	NONE	NO_ALARM
2016/10/24 11:25:11.927908212	5,500000	0	0	NONE	NO_ALARM	0,000600	0	0	NONE	NO_ALARM
2016/10/24 11:25:12.320239649	5,503000	0	0	NONE	NO_ALARM	0,000600	0	0	NONE	NO_ALARM
2016/10/24 11:25:12.927896068	5,503000	0	0	NONE	NO_ALARM	0,001300	0	0	NONE	NO_ALARM
2016/10/24 11:25:13.320227449	5,518000	0	0	NONE	NO_ALARM	0,001300	0	0	NONE	NO_ALARM
2016/10/24 11:25:13.927898784	5,518000	0	0	NONE	NO_ALARM	0,000600	0	0	NONE	NO_ALARM
2016/10/24 11:25:14.320231748	5,497000	0	0	NONE	NO_ALARM	0,000600	0	0	NONE	NO_ALARM
2016/10/24 11:25:14.927926460	5,497000	0	0	NONE	NO_ALARM	0,000100	0	0	NONE	NO_ALARM
2016/10/24 11:25:15.320273846	5,484000	0	0	NONE	NO_ALARM	0,000100	0	0	NONE	NO_ALARM
2016/10/24 11:25:15.927951048	5,484000	0	0	NONE	NO_ALARM	0,001900	0	0	NONE	NO_ALARM
2016/10/24 11:25:16.320287669	5,537000	0	0	NONE	NO_ALARM	0,001900	0	0	NONE	NO_ALARM
2016/10/24 11:25:16.927910973	5,537000	0	0	NONE	NO_ALARM	0,000300	0	0	NONE	NO_ALARM
2016/10/24 11:25:17.320247706	5,512000	0	0	NONE	NO_ALARM	0,000300	0	0	NONE	NO_ALARM
2016/10/24 11:25:17.927885734	5,512000	0	0	NONE	NO_ALARM	0,000000	0	0	NONE	NO_ALARM
2016/10/24 11:25:18.320223293	5,503000	0	0	NONE	NO_ALARM	0,000000	0	0	NONE	NO_ALARM
2016/10/24 11:25:18.927922373	5,503000	0	0	NONE	NO_ALARM	0,001200	0	0	NONE	NO_ALARM
2016/10/24 11:25:19.320267914	5,987000	0	0	NONE	NO_ALARM	0,001200	0	0	NONE	NO_ALARM
2016/10/24 11:25:19.927902678	5,987000	0	0	NONE	NO_ALARM	0,000000	0	0	NONE	NO_ALARM
2016/10/24 11:25:20.320254897	5,993000	0	0	NONE	NO_ALARM	0,000000	0	0	NONE	NO_ALARM
2016/10/24 11:25:21.320254835	5,996000	0	0	NONE	NO_ALARM	0,000000	0	0	NONE	NO_ALARM
2016/10/24 11:25:21.927914794	5,996000	0	0	NONE	NO_ALARM	0,000600	0	0	NONE	NO_ALARM
2016/10/24 11:25:22.320275227	6,002000	0	0	NONE	NO_ALARM	0,000600	0	0	NONE	NO_ALARM
2016/10/24 11:25:22.927905685	6,002000	0	0	NONE	NO_ALARM	0,000000	0	0	NONE	NO_ALARM
2016/10/24 11:25:23.320247783	5,974000	0	0	NONE	NO_ALARM	0,000000	0	0	NONE	NO_ALARM
2016/10/24 11:25:23.927930267	5,974000	0	0	NONE	NO_ALARM	0,001300	0	0	NONE	NO_ALARM
2016/10/24 11:25:24.320285918	6,005000	0	0	NONE	NO_ALARM	0,001300	0	0	NONE	NO_ALARM
2016/10/24 11:25:24.927920525	6,005000	0	0	NONE	NO_ALARM	0,000000	0	0	NONE	NO_ALARM
2016/10/24 11:25:25.320271547	6,017000	0	0	NONE	NO_ALARM	0,000000	0	0	NONE	NO_ALARM
2016/10/24 11:25:25.927904446	6,017000	0	0	NONE	NO_ALARM	0,000100	0	0	NONE	NO_ALARM
2016/10/24 11:25:26.320235493	5,993000	0	0	NONE	NO_ALARM	0,000100	0	0	NONE	NO_ALARM
2016/10/24 11:25:26.927929059	5,993000	0	0	NONE	NO_ALARM	0,000300	0	0	NONE	NO_ALARM
2016/10/24 11:25:27.927927197	5,993000	0	0	NONE	NO_ALARM	0,003600	0	0	NONE	NO_ALARM
2016/10/24 11:25:28.320262516	6,517000	0	0	NONE	NO_ALARM	0,003600	0	0	NONE	NO_ALARM
2016/10/24 11:25:28.927902441	6,517000	0	0	NONE	NO_ALARM	0,000400	0	0	NONE	NO_ALARM
2016/10/24 11:25:29.320235176	6,507000	0	0	NONE	NO_ALARM	0,000400	0	0	NONE	NO_ALARM
2016/10/24 11:25:29.927914781	6,507000	0	0	NONE	NO_ALARM	0,000700	0	0	NONE	NO_ALARM
2016/10/24 11:25:30.320252286	6,495000	0	0	NONE	NO_ALARM	0,000700	0	0	NONE	NO_ALARM
2016/10/24 11:25:30.927933287	6,495000	0	0	NONE	NO_ALARM	0,001500	0	0	NONE	NO_ALARM
2016/10/24 11:25:31.320273227	6,489000	0	0	NONE	NO_ALARM	0,001500	0	0	NONE	NO_ALARM
2016/10/24 11:25:31.927928217	6,489000	0	0	NONE	NO_ALARM	0,000600	0	0	NONE	NO_ALARM
2016/10/24 11:25:32.320282295	6,994000	0	0	NONE	NO_ALARM	0,000600	0	0	NONE	NO_ALARM
2016/10/24 11:25:32.927912949	6,994000	0	0	NONE	NO_ALARM	0,000000	0	0	NONE	NO_ALARM
2016/10/24 11:25:33.320255599	6,988000	0	0	NONE	NO_ALARM	0,000000	0	0	NONE	NO_ALARM
2016/10/24 11:25:34.320298341	6,997000	0	0	NONE	NO_ALARM	0,000000	0	0	NONE	NO_ALARM
2016/10/24 11:25:34.927922379	6,997000	0	0	NONE	NO_ALARM	0,000400	0	0	NONE	NO_ALARM
2016/10/24 11:25:35.320272416	6,988000	0	0	NONE	NO_ALARM	0,000400	0	0	NONE	NO_ALARM
2016/10/24 11:25:35.927924588	6,988000	0	0	NONE	NO_ALARM	0,000000	0	0	NONE	NO_ALARM
2016/10/24 11:25:36.320290944	7,524000	0	0	NONE	NO_ALARM	0,000000	0	0	NONE	NO_ALARM
2016/10/24 11:25:36.927904916	7,524000	0	0	NONE	NO_ALARM	0,000600	0	0	NONE	NO_ALARM
2016/10/24 11:25:37.320244040	7,512000	0	0	NONE	NO_ALARM	0,000600	0	0	NONE	NO_ALARM
2016/10/24 11:25:37.927888985	7,512000	0	0	NONE	NO_ALARM	0,000100	0	0	NONE	NO_ALARM
2016/10/24 11:25:38.320215189	7,515000	0	0	NONE	NO_ALARM	0,000100	0	0	NONE	NO_ALARM
2016/10/24 11:25:38.927907567	7,515000	0	0	NONE	NO_ALARM	0,000300	0	0	NONE	NO_ALARM
2016/10/24 11:25:39.320227165	7,521000	0	0	NONE	NO_ALARM	0,000300	0	0	NONE	NO_ALARM
2016/10/24 11:25:39.927913746	7,521000	0	0	NONE	NO_ALARM	0,001500	0	0	NONE	NO_ALARM
2016/10/24 11:25:40.320240636	8,005000	0	0	NONE	NO_ALARM	0,001500	0	0	NONE	NO_ALARM
2016/10/24 11:25:40.927891743	8,005000	0	0	NONE	NO_ALARM	0,000400	0	0	NONE	NO_ALARM
2016/10/24 11:25:41.320228040	8,008000	0	0	NONE	NO_ALARM	0,000400	0	0	NONE	NO_ALARM
2016/10/24 11:25:41.927905291	8,008000	0	0	NONE	NO_ALARM	0,001200	0	0	NONE	NO_ALARM
2016/10/24 11:25:42.320238857	8,036000	0	0	NONE	NO_ALARM	0,001200	0	0	NONE	NO_ALARM
2016/10/24 11:25:42.927914115	8,036000	0	0	NONE	NO_ALARM	0,000700	0	0	NONE	NO_ALARM
2016/10/24 11:25:43.320286778	8,002000	0	0	NONE	NO_ALARM	0,000700	0	0	NONE	NO_ALARM
2016/10/24 11:25:43.927958315	8,002000	0	0	NONE	NO_ALARM	0,002400	0	0	NONE	NO_ALARM
2016/10/24 11:25:44.320287568	8,005000	0	0	NONE	NO_ALARM	0,002400	0	0	NONE	NO_ALARM
2016/10/24 11:25:44.927906468	8,005000	0	0	NONE	NO_ALARM	0,000600	0	0	NONE	NO_ALARM
2016/10/24 11:25:45.320236480	8,036000	0	0	NONE	NO_ALARM	0,000600	0	0	NONE	NO_ALARM
2016/10/24 11:25:45.927996972	8,036000	0	0	NONE	NO_ALARM	0,002400	0	0	NONE	NO_ALARM
2016/10/24 11:25:46.320348280	8,526000	0	0	NONE	NO_ALARM	0,002400	0	0	NONE	NO_ALARM
2016/10/24 11:25:46.927913185	8,526000	0	0	NONE	NO_ALARM	0,000000	0	0	NONE	NO_ALARM
2016/10/24 11:25:47.927921493	8,526000	0	0	NONE	NO_ALARM	0,000600	0	0	NONE	NO_ALARM
2016/10/24 11:25:48.320282369	8,498000	0	0	NONE	NO_ALARM	0,000600	0	0	NONE	NO_ALARM
2016/10/24 11:25:48.927919229	8,498000	0	0	NONE	NO_ALARM	0,000000	0	0	NONE	NO_ALARM
2016/10/24 11:25:49.320294313	8,510000	0	0	NONE	NO_ALARM	0,000000	0	0	NONE	NO_ALARM
2016/10/24 11:25:49.927921731	8,510000	0	0	NONE	NO_ALARM	0,002400	0	0	NONE	NO_ALARM
2016/10/24 11:25:50.320265754	8,532000	0	0	NONE	NO_ALARM	0,002400	0	0	NONE	NO_ALARM
2016/10/24 11:25:50.927911326	8,532000	0	0	NONE	NO_ALARM	0,000400	0	0	NONE	NO_ALARM
2016/10/24 11:25:51.320249106	8,507000	0	0	NONE	NO_ALARM	0,000400	0	0	NONE	NO_ALARM
2016/10/24 11:25:51.927903964	8,507000	0	0	NONE	NO_ALARM	0,001500	0	0	NONE	NO_ALARM
2016/10/24 11:25:52.320240243	8,532000	0	0	NONE	NO_ALARM	0,001500	0	0	NONE	NO_ALARM
2016/10/24 11:25:52.927907015	8,532000	0	0	NONE	NO_ALARM	0,000300	0	0	NONE	NO_ALARM
2016/10/24 11:25:53.320253689	8,507000	0	0	NONE	NO_ALARM	0,000300	0	0	NONE	NO_ALARM
2016/10/24 11:25:53.927924199	8,507000	0	0	NONE	NO_ALARM	0,001200	0	0	NONE	NO_ALARM
2016/10/24 11:25:54.320293283	9,009000	0	0	NONE	NO_ALARM	0,001200	0	0	NONE	NO_ALARM
2016/10/24 11:25:54.927927907	9,009000	0	0	NONE	NO_ALARM	0,000000	0	0	NONE	NO_ALARM
2016/10/24 11:25:55.320301767	9,006000	0	0	NONE	NO_ALARM	0,000000	0	0	NONE	NO_ALARM
2016/10/24 11:25:55.927973339	9,006000	0	0	NONE	NO_ALARM	0,001200	0	0	NONE	NO_ALARM
2016/10/24 11:25:56.320317505	9,025000	0	0	NONE	NO_ALARM	0,001200	0	0	NONE	NO_ALARM
2016/10/24 11:25:56.927918688	9,025000	0	0	NONE	NO_ALARM	0,000100	0	0	NONE	NO_ALARM
2016/10/24 11:25:57.320276396	9,009000	0	0	NONE	NO_ALARM	0,000100	0	0	NONE	NO_ALARM
2016/10/24 11:25:57.927915095	9,009000	0	0	NONE	NO_ALARM	0,000600	0	0	NONE	NO_ALARM
2016/10/24 11:25:58.320274762	9,000000	0	0	NONE	NO_ALARM	0,000600	0	0	NONE	NO_ALARM
2016/10/24 11:25:58.927925290	9,000000	0	0	NONE	NO_ALARM	0,000300	0	0	NONE	NO_ALARM
2016/10/24 11:25:59.320283808	9,019000	0	0	NONE	NO_ALARM	0,000300	0	0	NONE	NO_ALARM
2016/10/24 11:25:59.927930386	9,019000	0	0	NONE	NO_ALARM	0,000000	0	0	NONE	NO_ALARM
2016/10/24 11:26:00.320276703	9,031000	0	0	NONE	NO_ALARM	0,000000	0	0	NONE	NO_ALARM
2016/10/24 11:26:01.320237226	8,997000	0	0	NONE	NO_ALARM	0,000000	0	0	NONE	NO_ALARM
2016/10/24 11:26:01.927910851	8,997000	0	0	NONE	NO_ALARM	0,000600	0	0	NONE	NO_ALARM
2016/10/24 11:26:02.320249023	9,009000	0	0	NONE	NO_ALARM	0,000600	0	0	NONE	NO_ALARM
2016/10/24 11:26:02.927901596	9,009000	0	0	NONE	NO_ALARM	0,002400	0	0	NONE	NO_ALARM
2016/10/24 11:26:03.320247535	9,527000	0	0	NONE	NO_ALARM	0,002400	0	0	NONE	NO_ALARM
2016/10/24 11:26:03.927916936	9,527000	0	0	NONE	NO_ALARM	0,000100	0	0	NONE	NO_ALARM
2016/10/24 11:26:04.320254973	9,515000	0	0	NONE	NO_ALARM	0,000100	0	0	NONE	NO_ALARM
2016/10/24 11:26:04.927901592	9,515000	0	0	NONE	NO_ALARM	0,000400	0	0	NONE	NO_ALARM
2016/10/24 11:26:05.320236861	9,512000	0	0	NONE	NO_ALARM	0,000400	0	0	NONE	NO_ALARM
2016/10/24 11:26:05.927901625	9,512000	0	0	NONE	NO_ALARM	0,002400	0	0	NONE	NO_ALARM
2016/10/24 11:26:06.320226232	9,521000	0	0	NONE	NO_ALARM	0,002400	0	0	NONE	NO_ALARM
2016/10/24 11:26:06.927916120	9,521000	0	0	NONE	NO_ALARM	0,001300	0	0	NONE	NO_ALARM
2016/10/24 11:26:07.320237142	10,020000	0	0	NONE	NO_ALARM	0,001300	0	0	NONE	NO_ALARM
2016/10/24 11:26:07.927898258	10,020000	0	0	NONE	NO_ALARM	0,001200	0	0	NONE	NO_ALARM
2016/10/24 11:26:08.320220056	10,026000	0	0	NONE	NO_ALARM	0,001200	0	0	NONE	NO_ALARM
2016/10/24 11:26:08.927905283	10,026000	0	0	NONE	NO_ALARM	0,000000	0	0	NONE	NO_ALARM
2016/10/24 11:26:09.320233273	10,032000	0	0	NONE	NO_ALARM	0,000000	0	0	NONE	NO_ALARM
2016/10/24 11:26:09.927916957	10,032000	0	0	NONE	NO_ALARM	0,001200	0	0	NONE	NO_ALARM
2016/10/24 11:26:10.320252134	10,014000	0	0	NONE	NO_ALARM	0,001200	0	0	NONE	NO_ALARM
2016/10/24 11:26:10.927926809	10,014000	0	0	NONE	NO_ALARM	0,001500	0	0	NONE	NO_ALARM
2016/10/24 11:26:11.320310676	10,017000	0	0	NONE	NO_ALARM	0,001500	0	0	NONE	NO_ALARM
2016/10/24 11:26:11.948108383	10,017000	0	0	NONE	NO_ALARM	0,000900	0	0	NONE	NO_ALARM
2016/10/24 11:26:12.340462640	10,495000	0	0	NONE	NO_ALARM	0,000900	0	0	NONE	NO_ALARM
2016/10/24 11:26:12.927977021	10,495000	0	0	NONE	NO_ALARM	0,000300	0	0	NONE	NO_ALARM
2016/10/24 11:26:13.320307892	10,522000	0	0	NONE	NO_ALARM	0,000300	0	0	NONE	NO_ALARM
2016/10/24 11:26:14.320246818	10,504000	0	0	NONE	NO_ALARM	0,000300	0	0	NONE	NO_ALARM
2016/10/24 11:26:15.320283567	10,510000	0	0	NONE	NO_ALARM	0,000300	0	0	NONE	NO_ALARM
2016/10/24 11:26:15.927993316	10,510000	0	0	NONE	NO_ALARM	0,000100	0	0	NONE	NO_ALARM
2016/10/24 11:26:16.320358971	10,516000	0	0	NONE	NO_ALARM	0,000100	0	0	NONE	NO_ALARM
2016/10/24 11:26:17.320302257	10,510000	0	0	NONE	NO_ALARM	0,000100	0	0	NONE	NO_ALARM
2016/10/24 11:26:17.927933549	10,510000	0	0	NONE	NO_ALARM	0,000000	0	0	NONE	NO_ALARM
2016/10/24 11:26:18.320302359	10,504000	0	0	NONE	NO_ALARM	0,000000	0	0	NONE	NO_ALARM
2016/10/24 11:26:19.320287304	10,522000	0	0	NONE	NO_ALARM	0,000000	0	0	NONE	NO_ALARM
2016/10/24 11:26:19.927915376	10,522000	0	0	NONE	NO_ALARM	0,002400	0	0	NONE	NO_ALARM
2016/10/24 11:26:21.320236296	10,513000	0	0	NONE	NO_ALARM	0,002400	0	0	NONE	NO_ALARM
2016/10/24 11:26:21.927904936	10,513000	0	0	NONE	NO_ALARM	0,000100	0	0	NONE	NO_ALARM
2016/10/24 11:26:22.927903701	10,513000	0	0	NONE	NO_ALARM	0,001200	0	0	NONE	NO_ALARM
2016/10/24 11:26:23.320239812	10,522000	0	0	NONE	NO_ALARM	0,001200	0	0	NONE	NO_ALARM
2016/10/24 11:26:23.927902195	10,522000	0	0	NONE	NO_ALARM	0,000100	0	0	NONE	NO_ALARM
2016/10/24 11:26:24.320234150	10,513000	0	0	NONE	NO_ALARM	0,000100	0	0	NONE	NO_ALARM
2016/10/24 11:26:24.927917299	10,513000	0	0	NONE	NO_ALARM	0,000000	0	0	NONE	NO_ALARM
2016/10/24 11:26:25.320260486	10,510000	0	0	NONE	NO_ALARM	0,000000	0	0	NONE	NO_ALARM
2016/10/24 11:26:26.320284897	10,516000	0	0	NONE	NO_ALARM	0,000000	0	0	NONE	NO_ALARM
2016/10/24 11:26:26.927918680	10,516000	0	0	NONE	NO_ALARM	0,001200	0	0	NONE	NO_ALARM
2016/10/24 11:26:27.320274347	10,519000	0	0	NONE	NO_ALARM	0,001200	0	0	NONE	NO_ALARM
2016/10/24 11:26:27.927900016	10,519000	0	0	NONE	NO_ALARM	0,000000	0	0	NONE	NO_ALARM
2016/10/24 11:26:28.320238032	10,510000	0	0	NONE	NO_ALARM	0,000000	0	0	NONE	NO_ALARM
2016/10/24 11:26:30.320218910	10,504000	0	0	NONE	NO_ALARM	0,000000	0	0	NONE	NO_ALARM
2016/10/24 11:26:31.927898263	10,504000	0	0	NONE	NO_ALARM	0,000600	0	0	NONE	NO_ALARM
2016/10/24 11:26:32.927891362	10,504000	0	0	NONE	NO_ALARM	0,000100	0	0	NONE	NO_ALARM
2016/10/24 11:26:33.320235424	10,510000	0	0	NONE	NO_ALARM	0,000100	0	0	NONE	NO_ALARM
2016/10/24 11:26:33.927935496	10,510000	0	0	NONE	NO_ALARM	0,000600	0	0	NONE	NO_ALARM
2016/10/24 11:26:34.927901793	10,510000	0	0	NONE	NO_ALARM	0,000300	0	0	NONE	NO_ALARM
2016/10/24 11:26:35.320233887	10,516000	0	0	NONE	NO_ALARM	0,000300	0	0	NONE	NO_ALARM
2016/10/24 11:26:36.320314125	10,513000	0	0	NONE	NO_ALARM	0,000300	0	0	NONE	NO_ALARM
2016/10/24 11:26:37.320261997	10,525000	0	0	NONE	NO_ALARM	0,000300	0	0	NONE	NO_ALARM
2016/10/24 11:26:38.320230284	10,519000	0	0	NONE	NO_ALARM	0,000300	0	0	NONE	NO_ALARM
2016/10/24 11:26:39.320249666	10,513000	0	0	NONE	NO_ALARM	0,000300	0	0	NONE	NO_ALARM
2016/10/24 11:26:39.927916772	10,513000	0	0	NONE	NO_ALARM	0,001200	0	0	NONE	NO_ALARM
2016/10/24 11:26:40.320283877	10,510000	0	0	NONE	NO_ALARM	0,001200	0	0	NONE	NO_ALARM
2016/10/24 11:26:40.927927426	10,510000	0	0	NONE	NO_ALARM	0,000300	0	0	NONE	NO_ALARM
2016/10/24 11:26:41.320257465	10,516000	0	0	NONE	NO_ALARM	0,000300	0	0	NONE	NO_ALARM
2016/10/24 11:26:41.927894638	10,516000	0	0	NONE	NO_ALARM	0,000600	0	0	NONE	NO_ALARM
2016/10/24 11:26:42.320218864	10,510000	0	0	NONE	NO_ALARM	0,000600	0	0	NONE	NO_ALARM
2016/10/24 11:26:42.927916762	10,510000	0	0	NONE	NO_ALARM	0,000300	0	0	NONE	NO_ALARM
2016/10/24 11:26:43.320289509	10,507000	0	0	NONE	NO_ALARM	0,000300	0	0	NONE	NO_ALARM
2016/10/24 11:26:44.320287554	10,510000	0	0	NONE	NO_ALARM	0,000300	0	0	NONE	NO_ALARM
2016/10/24 11:26:44.927930486	10,510000	0	0	NONE	NO_ALARM	0,000000	0	0	NONE	NO_ALARM
2016/10/24 11:26:45.320329480	10,528000	0	0	NONE	NO_ALARM	0,000000	0	0	NONE	NO_ALARM
2016/10/24 11:26:45.927999139	10,528000	0	0	NONE	NO_ALARM	0,000300	0	0	NONE	NO_ALARM
2016/10/24 11:26:46.320354627	10,510000	0	0	NONE	NO_ALARM	0,000300	0	0	NONE	NO_ALARM
2016/10/24 11:26:46.927912590	10,510000	0	0	NONE	NO_ALARM	0,000000	0	0	NONE	NO_ALARM
2016/10/24 11:26:47.320237711	10,519000	0	0	NONE	NO_ALARM	0,000000	0	0	NONE	NO_ALARM
2016/10/24 11:26:47.927903467	10,519000	0	0	NONE	NO_ALARM	0,000300	0	0	NONE	NO_ALARM
2016/10/24 11:26:48.320245018	10,513000	0	0	NONE	NO_ALARM	0,000300	0	0	NONE	NO_ALARM
2016/10/24 11:26:49.320271978	10,507000	0	0	NONE	NO_ALARM	0,000300	0	0	NONE	NO_ALARM
2016/10/24 11:26:49.927906542	10,507000	0	0	NONE	NO_ALARM	0,000100	0	0	NONE	NO_ALARM
2016/10/24 11:26:50.320250348	10,510000	0	0	NONE	NO_ALARM	0,000100	0	0	NONE	NO_ALARM
2016/10/24 11:26:50.927919273	10,510000	0	0	NONE	NO_ALARM	0,000300	0	0	NONE	NO_ALARM
2016/10/24 11:26:51.320292917	10,516000	0	0	NONE	NO_ALARM	0,000300	0	0	NONE	NO_ALARM
2016/10/24 11:26:51.927861350	10,516000	0	0	NONE	NO_ALARM	0,000400	0	0	NONE	NO_ALARM
2016/10/24 11:26:52.320221317	10,501000	0	0	NONE	NO_ALARM	0,000400	0	0	NONE	NO_ALARM
2016/10/24 11:26:52.927931684	10,501000	0	0	NONE	NO_ALARM	0,000100	0	0	NONE	NO_ALARM
2016/10/24 11:26:53.320275863	10,507000	0	0	NONE	NO_ALARM	0,000100	0	0	NONE	NO_ALARM
2016/10/24 11:26:54.927899067	10,507000	0	0	NONE	NO_ALARM	0,000700	0	0	NONE	NO_ALARM
2016/10/24 11:26:55.927972610	10,507000	0	0	NONE	NO_ALARM	0,000600	0	0	NONE	NO_ALARM
2016/10/24 11:26:56.320315938	10,501000	0	0	NONE	NO_ALARM	0,000600	0	0	NONE	NO_ALARM
2016/10/24 11:26:56.927911803	10,501000	0	0	NONE	NO_ALARM	0,000700	0	0	NONE	NO_ALARM
2016/10/24 11:26:57.320244925	10,525000	0	0	NONE	NO_ALARM	0,000700	0	0	NONE	NO_ALARM
2016/10/24 11:26:57.927952520	10,525000	0	0	NONE	NO_ALARM	0,000600	0	0	NONE	NO_ALARM
2016/10/24 11:26:58.320312207	10,513000	0	0	NONE	NO_ALARM	0,000600	0	0	NONE	NO_ALARM
2016/10/24 11:26:58.927942828	10,513000	0	0	NONE	NO_ALARM	0,000000	0	0	NONE	NO_ALARM
2016/10/24 11:26:59.927938864	10,513000	0	0	NONE	NO_ALARM	0,000600	0	0	NONE	NO_ALARM
2016/10/24 11:27:00.320272128	10,516000	0	0	NONE	NO_ALARM	0,000600	0	0	NONE	NO_ALARM
2016/10/24 11:27:00.927903467	10,516000	0	0	NONE	NO_ALARM	0,000000	0	0	NONE	NO_ALARM
2016/10/24 11:27:01.927942998	10,516000	0	0	NONE	NO_ALARM	0,001200	0	0	NONE	NO_ALARM
2016/10/24 11:27:02.320258438	11,006000	0	0	NONE	NO_ALARM	0,001200	0	0	NONE	NO_ALARM
2016/10/24 11:27:04.320233418	11,015000	0	0	NONE	NO_ALARM	0,001200	0	0	NONE	NO_ALARM
2016/10/24 11:27:04.927898799	11,015000	0	0	NONE	NO_ALARM	0,000000	0	0	NONE	NO_ALARM
2016/10/24 11:27:05.320226750	11,012000	0	0	NONE	NO_ALARM	0,000000	0	0	NONE	NO_ALARM
2016/10/24 11:27:05.927904921	11,012000	0	0	NONE	NO_ALARM	0,000100	0	0	NONE	NO_ALARM
2016/10/24 11:27:06.320241579	11,025000	0	0	NONE	NO_ALARM	0,000100	0	0	NONE	NO_ALARM
2016/10/24 11:27:06.927921080	11,025000	0	0	NONE	NO_ALARM	0,000000	0	0	NONE	NO_ALARM
2016/10/24 11:27:07.320270909	11,009000	0	0	NONE	NO_ALARM	0,000000	0	0	NONE	NO_ALARM
2016/10/24 11:27:07.927924099	11,009000	0	0	NONE	NO_ALARM	0,002400	0	0	NONE	NO_ALARM
2016/10/24 11:27:08.320257383	11,021000	0	0	NONE	NO_ALARM	0,002400	0	0	NONE	NO_ALARM
2016/10/24 11:27:08.927904122	11,021000	0	0	NONE	NO_ALARM	0,000000	0	0	NONE	NO_ALARM
2016/10/24 11:27:09.320224068	11,009000	0	0	NONE	NO_ALARM	0,000000	0	0	NONE	NO_ALARM
2016/10/24 11:27:09.927899641	11,009000	0	0	NONE	NO_ALARM	0,000300	0	0	NONE	NO_ALARM
2016/10/24 11:27:10.320255290	11,025000	0	0	NONE	NO_ALARM	0,000300	0	0	NONE	NO_ALARM
2016/10/24 11:27:10.927937166	11,025000	0	0	NONE	NO_ALARM	0,001500	0	0	NONE	NO_ALARM
2016/10/24 11:27:11.927927150	11,025000	0	0	NONE	NO_ALARM	0,000100	0	0	NONE	NO_ALARM
2016/10/24 11:27:12.927894467	11,025000	0	0	NONE	NO_ALARM	0,002400	0	0	NONE	NO_ALARM
2016/10/24 11:27:13.320233419	11,518000	0	0	NONE	NO_ALARM	0,002400	0	0	NONE	NO_ALARM
2016/10/24 11:27:13.927911695	11,518000	0	0	NONE	NO_ALARM	0,000600	0	0	NONE	NO_ALARM
2016/10/24 11:27:14.320247790	11,505000	0	0	NONE	NO_ALARM	0,000600	0	0	NONE	NO_ALARM
2016/10/24 11:27:15.320262415	11,499000	0	0	NONE	NO_ALARM	0,000600	0	0	NONE	NO_ALARM
2016/10/24 11:27:15.927957360	11,499000	0	0	NONE	NO_ALARM	0,000100	0	0	NONE	NO_ALARM
2016/10/24 11:27:16.320297821	11,508000	0	0	NONE	NO_ALARM	0,000100	0	0	NONE	NO_ALARM
2016/10/24 11:27:16.927918962	11,508000	0	0	NONE	NO_ALARM	0,000300	0	0	NONE	NO_ALARM
2016/10/24 11:27:17.927904427	11,508000	0	0	NONE	NO_ALARM	0,001200	0	0	NONE	NO_ALARM
2016/10/24 11:27:18.320232072	11,511000	0	0	NONE	NO_ALARM	0,001200	0	0	NONE	NO_ALARM
2016/10/24 11:27:19.320276188	11,508000	0	0	NONE	NO_ALARM	0,001200	0	0	NONE	NO_ALARM
2016/10/24 11:27:19.927900581	11,508000	0	0	NONE	NO_ALARM	0,000000	0	0	NONE	NO_ALARM
2016/10/24 11:27:20.320233286	11,511000	0	0	NONE	NO_ALARM	0,000000	0	0	NONE	NO_ALARM
2016/10/24 11:27:20.927899183	11,511000	0	0	NONE	NO_ALARM	0,000600	0	0	NONE	NO_ALARM
2016/10/24 11:27:21.320236453	11,521000	0	0	NONE	NO_ALARM	0,000600	0	0	NONE	NO_ALARM
2016/10/24 11:27:22.320273101	11,511000	0	0	NONE	NO_ALARM	0,000600	0	0	NONE	NO_ALARM
2016/10/24 11:27:23.320265561	12,017000	0	0	NONE	NO_ALARM	0,000600	0	0	NONE	NO_ALARM
2016/10/24 11:27:24.320262412	12,014000	0	0	NONE	NO_ALARM	0,000600	0	0	NONE	NO_ALARM
2016/10/24 11:27:24.927910360	12,014000	0	0	NONE	NO_ALARM	0,000000	0	0	NONE	NO_ALARM
2016/10/24 11:27:25.320238418	12,026000	0	0	NONE	NO_ALARM	0,000000	0	0	NONE	NO_ALARM
2016/10/24 11:27:25.927894187	12,026000	0	0	NONE	NO_ALARM	0,000300	0	0	NONE	NO_ALARM
2016/10/24 11:27:26.320227421	12,011000	0	0	NONE	NO_ALARM	0,000300	0	0	NONE	NO_ALARM
2016/10/24 11:27:26.927889851	12,011000	0	0	NONE	NO_ALARM	0,000000	0	0	NONE	NO_ALARM
2016/10/24 11:27:27.320216052	12,014000	0	0	NONE	NO_ALARM	0,000000	0	0	NONE	NO_ALARM
2016/10/24 11:27:27.927902391	12,014000	0	0	NONE	NO_ALARM	0,000300	0	0	NONE	NO_ALARM
2016/10/24 11:27:28.320230825	12,011000	0	0	NONE	NO_ALARM	0,000300	0	0	NONE	NO_ALARM
2016/10/24 11:27:28.927925433	12,011000	0	0	NONE	NO_ALARM	0,000000	0	0	NONE	NO_ALARM
2016/10/24 11:27:29.927899966	12,011000	0	0	NONE	NO_ALARM	0,000300	0	0	NONE	NO_ALARM
2016/10/24 11:27:30.927935939	12,011000	0	0	NONE	NO_ALARM	0,001200	0	0	NONE	NO_ALARM
2016/10/24 11:27:31.927945941	12,011000	0	0	NONE	NO_ALARM	0,000300	0	0	NONE	NO_ALARM
2016/10/24 11:27:32.320280485	12,017000	0	0	NONE	NO_ALARM	0,000300	0	0	NONE	NO_ALARM
2016/10/24 11:27:32.927897229	12,017000	0	0	NONE	NO_ALARM	0,000000	0	0	NONE	NO_ALARM
2016/10/24 11:27:34.320300650	12,008000	0	0	NONE	NO_ALARM	0,000000	0	0	NONE	NO_ALARM
2016/10/24 11:27:34.927898197	12,008000	0	0	NONE	NO_ALARM	0,000100	0	0	NONE	NO_ALARM
2016/10/24 11:27:35.320229764	12,020000	0	0	NONE	NO_ALARM	0,000100	0	0	NONE	NO_ALARM
2016/10/24 11:27:35.927935917	12,020000	0	0	NONE	NO_ALARM	0,002400	0	0	NONE	NO_ALARM
2016/10/24 11:27:36.927899717	12,020000	0	0	NONE	NO_ALARM	0,000100	0	0	NONE	NO_ALARM
2016/10/24 11:27:37.320234871	12,014000	0	0	NONE	NO_ALARM	0,000100	0	0	NONE	NO_ALARM
2016/10/24 11:27:38.927920880	12,014000	0	0	NONE	NO_ALARM	0,001200	0	0	NONE	NO_ALARM
2016/10/24 11:27:39.320265313	12,011000	0	0	NONE	NO_ALARM	0,001200	0	0	NONE	NO_ALARM
2016/10/24 11:27:40.927888143	12,011000	0	0	NONE	NO_ALARM	0,000000	0	0	NONE	NO_ALARM
2016/10/24 11:27:42.320247610	12,017000	0	0	NONE	NO_ALARM	0,000000	0	0	NONE	NO_ALARM
2016/10/24 11:27:43.320325567	12,011000	0	0	NONE	NO_ALARM	0,000000	0	0	NONE	NO_ALARM
2016/10/24 11:27:43.928028554	12,011000	0	0	NONE	NO_ALARM	0,001200	0	0	NONE	NO_ALARM